 Gaussian 03, Revision E.01,
 Gaussian 03:  EM64M-G03RevE.01 11-Sep-2007

 -----------------------------------------------
 # HF/6-31G(d) Opt SCF=Tight MaxDisk=5000Mb Test
 -----------------------------------------------

 -------------
 scan rotamers
 -------------
 Symbolic Z-matrix:
 Charge =  1 Multiplicity = 1

 SCF Done:  E(RHF) =  -664.745114973     A.U. after   16 cycles
 SCF Done:  E(RHF) =  -664.900053336     A.U. after   15 cycles
 SCF Done:  E(RHF) =  -665.023188231     A.U. after   16 cycles
 SCF Done:  E(RHF) =  -665.078533211     A.U. after   16 cycles
 SCF Done:  E(RHF) =  -665.165230503     A.U. after   14 cycles
 SCF Done:  E(RHF) =  -665.207727286     A.U. after   14 cycles
 SCF Done:  E(RHF) =  -665.266076438     A.U. after   15 cycles
 SCF Done:  E(RHF) =  -665.298980532     A.U. after   17 cycles
 SCF Done:  E(RHF) =  -665.308308935     A.U. after   15 cycles
 SCF Done:  E(RHF) =  -665.312819994     A.U. after   14 cycles
 SCF Done:  E(RHF) =  -665.323981527     A.U. after   12 cycles
 SCF Done:  E(RHF) =  -665.323989905     A.U. after   12 cycles
 SCF Done:  E(RHF) =  -665.324029491     A.U. after   11 cycles
 SCF Done:  E(RHF) =  -665.324062168     A.U. after   11 cycles
 SCF Done:  E(RHF) =  -665.324078765     A.U. after   11 cycles
 SCF Done:  E(RHF) =  -665.324081849     A.U. after   10 cycles
 SCF Done:  E(RHF) =  -665.324084196     A.U. after   10 cycles
 SCF Done:  E(RHF) =  -665.324085325     A.U. after    9 cycles
 SCF Done:  E(RHF) =  -665.324085663     A.U. after    9 cycles
 SCF Done:  E(RHF) =  -665.324085765     A.U. after    8 cycles
 Optimization completed.
    -- Stationary point found.

                         Standard orientation:
 ---------------------------------------------------------------------
 Center     Atomic     Atomic              Coordinates (Angstroms)
 Number     Number      Type              X           Y           Z
 ---------------------------------------------------------------------
    1          7             0       -0.360609    0.629469   -0.313447
    2          6             0        0.733767   -0.184597   -0.799428
    3          6             0        1.745801   -0.466747    0.320639
    4          8             0        1.408865   -0.287239    1.464302
    5          6             0       -1.366250   -0.031182    0.487112
    6          6             0       -2.593565   -0.417958   -0.356076
    7          6             0       -0.081998    1.976709   -0.202849
    8          7             0       -4.826718   -1.532335   -0.351375
    9          8             0        0.925574    2.427727   -0.661418
   10          6             0       -1.089399    2.871051    0.486746
   11          6             0       -3.620234   -1.157881    0.490374
   12          1             0       -1.672064    0.598705    1.309259
   13          1             0       -0.930127   -0.911753    0.937063
   14          1             0       -2.276564   -1.045531   -1.184597
   15          1             0       -3.236362   -2.084903    0.891243
   16          1             0        0.344169   -1.131113   -1.162414
   17          1             0        1.191674    0.321953   -1.630297
   18          1             0       -5.271420   -0.712320   -0.741494
   19          1             0       -5.524786   -2.027999    0.187138
   20          1             0       -3.037093    0.477779   -0.781090
   21          1             0       -4.564366   -2.126312   -1.126393
   22          1             0       -0.864114    3.888890    0.206995
   23          1             0       -0.987082    2.782190    1.563411
   24          1             0       -2.114534    2.644184    0.217140
   25          1             0       -4.000228   -0.555171    1.302746
   26          7             0        2.947047   -0.960431   -0.034893
   27          6             0        3.963459   -1.146863    0.990340
   28          6             0        3.414670   -1.018794   -1.409621
   29          1             0        4.713349   -0.364134    0.932669
   30          1             0        4.449146   -2.104918    0.848575
   31          1             0        3.501383   -1.119975    1.961528
   32          1             0        4.232385   -1.723880   -1.460991
   33          1             0        3.772064   -0.055250   -1.760105
   34          1             0        2.643515   -1.373684   -2.078890
 ---------------------------------------------------------------------

 The electronic state is 1-A.
 Alpha  occ. eigenvalues --  -20.61651 -20.60319 -15.90137 -15.68804 -15.66764
 Alpha  occ. eigenvalues --  -11.48145 -11.44047 -11.42803 -11.39918 -11.39519
 Alpha  occ. eigenvalues --  -11.36386 -11.34022 -11.32247 -11.32006  -1.52220
 Alpha  occ. eigenvalues --   -1.49123  -1.47134  -1.35396  -1.32699  -1.23722
 Alpha  occ. eigenvalues --   -1.12631  -1.10680  -1.06531  -1.04726  -1.01414
 Alpha  occ. eigenvalues --   -0.99699  -0.98354  -0.95758  -0.87375  -0.84838
 Alpha  occ. eigenvalues --   -0.81978  -0.80943  -0.79258  -0.78644  -0.76288
 Alpha  occ. eigenvalues --   -0.73570  -0.73255  -0.72226  -0.70981  -0.70564
 Alpha  occ. eigenvalues --   -0.68455  -0.67515  -0.65813  -0.65328  -0.64532
 Alpha  occ. eigenvalues --   -0.63997  -0.63796  -0.63463  -0.60654  -0.60498
 Alpha  occ. eigenvalues --   -0.58981  -0.51308  -0.50746  -0.47278  -0.44791
 Alpha virt. eigenvalues --   -0.02567   0.05068   0.05158   0.06747   0.10567
 Alpha virt. eigenvalues --    0.11041   0.11710   0.12239   0.13579   0.15183
 Alpha virt. eigenvalues --    0.16025   0.16934   0.18704   0.19557   0.21419

 Mulliken atomic charges:
              1
     1  N   -0.669578
     2  C   -0.242309
     3  C    0.798467
     4  O   -0.634957
     5  C   -0.119674
     6  C   -0.349693
     7  C    0.771016
     8  N   -0.855986
     9  O   -0.582046
    10  C   -0.602104
    11  C   -0.220231
    12  H    0.208120
    13  H    0.226054
    14  H    0.197339
    15  H    0.259952
    16  H    0.186334
    17  H    0.257538
    18  H    0.464695
    19  H    0.470658
    20  H    0.199149
    21  H    0.464167
    22  H    0.243461
    23  H    0.216725
    24  H    0.154898
    25  H    0.258432
    26  N   -0.665795
    27  C   -0.302409
    28  C   -0.301629
    29  H    0.184481
    30  H    0.176771
    31  H    0.233404
    32  H    0.200195
    33  H    0.199247
    34  H    0.175310
 Sum of Mulliken charges=   1.00000

 Dipole moment (field-independent basis, Debye):
    X=   -20.0366    Y=    -8.6196    Z=    -2.5976  Tot=    21.9661
 Quadrupole moment (field-independent basis, Debye-Ang):
   XX=    30.7958   YY=   -72.4583   ZZ=   -83.0354
   XY=    20.7278   XZ=     1.0287   YZ=     7.2550

 Normal termination of Gaussian 03 at Mon Jun 28 16:19:27 2010.
