 Gaussian 03, Revision E.01,
 Gaussian 03:  IA64L-G03RevE.01 11-Sep-2007

 ---------------------------------------------
 # HF/6-31G(d) Opt=ModRedundant SCF=Tight Test
 ---------------------------------------------

 -------------
 scan rotamers
 -------------
 Symbolic Z-matrix:
 Charge =  1 Multiplicity = 1

 SCF Done:  E(RHF) =  -626.228552623     A.U. after   15 cycles
 SCF Done:  E(RHF) =  -626.278965994     A.U. after   15 cycles
 SCF Done:  E(RHF) =  -626.295588126     A.U. after   14 cycles
 SCF Done:  E(RHF) =  -626.311651575     A.U. after   17 cycles
 SCF Done:  E(RHF) =  -626.317240634     A.U. after   14 cycles
 SCF Done:  E(RHF) =  -626.317937750     A.U. after   13 cycles
 SCF Done:  E(RHF) =  -626.318905102     A.U. after   13 cycles
 SCF Done:  E(RHF) =  -626.319998671     A.U. after   13 cycles
 SCF Done:  E(RHF) =  -626.320595750     A.U. after   12 cycles
 SCF Done:  E(RHF) =  -626.321264594     A.U. after   13 cycles
 SCF Done:  E(RHF) =  -626.323393750     A.U. after   11 cycles
 SCF Done:  E(RHF) =  -626.323409072     A.U. after   11 cycles
 SCF Done:  E(RHF) =  -626.323453626     A.U. after   12 cycles
 SCF Done:  E(RHF) =  -626.323481365     A.U. after   12 cycles
 SCF Done:  E(RHF) =  -626.323498900     A.U. after   12 cycles
 SCF Done:  E(RHF) =  -626.323511726     A.U. after   10 cycles
 SCF Done:  E(RHF) =  -626.323516387     A.U. after    9 cycles
 SCF Done:  E(RHF) =  -626.323517898     A.U. after   10 cycles
 SCF Done:  E(RHF) =  -626.323518192     A.U. after    8 cycles
 SCF Done:  E(RHF) =  -626.323518216     A.U. after    7 cycles
 Optimization completed.
    -- Stationary point found.

                         Standard orientation:
 ---------------------------------------------------------------------
 Center     Atomic     Atomic              Coordinates (Angstroms)
 Number     Number      Type              X           Y           Z
 ---------------------------------------------------------------------
    1          6             0        0.486626    2.229592   -0.235378
    2          8             0        1.208080    1.931526   -1.154875
    3          6             0        0.436869    3.626761    0.335197
    4          1             0       -0.318713    4.193255   -0.199558
    5          1             0        0.185215    3.636184    1.388804
    6          1             0        1.391954    4.107459    0.179851
    7          7             0       -2.691974   -1.157160   -0.665026
    8          6             0       -4.055039   -1.584702   -0.392247
    9          1             0       -2.350018   -1.255412   -1.593434
   10          1             0       -4.123788   -1.944029    0.623099
   11          1             0       -4.760136   -0.772663   -0.521992
   12          1             0       -4.306566   -2.387433   -1.070873
   13          7             0       -0.341533    1.329323    0.343092
   14          6             0       -0.602261    0.028555   -0.227033
   15          6             0       -2.023492   -0.365969    0.187674
   16          8             0       -2.454715   -0.013307    1.252562
   17          6             0        0.355849   -1.067240    0.282860
   18          6             0        1.818394   -0.803607   -0.084756
   19          7             0        4.155925   -1.614582    0.000403
   20          6             0        2.718989   -1.943407    0.367807
   21          1             0       -0.957960    1.606486    1.076526
   22          1             0       -0.519719    0.100525   -1.304445
   23          1             0        0.248623   -1.136907    1.360798
   24          1             0        0.040027   -2.019659   -0.135177
   25          1             0        1.910256   -0.665586   -1.156576
   26          1             0        4.254164   -1.479668   -0.996952
   27          1             0        2.148675    0.118836    0.375463
   28          1             0        4.799869   -2.343562    0.275793
   29          1             0        2.493143   -2.881127   -0.119075
   30          1             0        2.708688   -2.088322    1.438498
   31          1             0        4.456840   -0.757088    0.443722
 ---------------------------------------------------------------------

 The electronic state is 1-A.
 Alpha  occ. eigenvalues --  -20.62746 -20.62204 -15.88947 -15.68687 -15.68313
 Alpha  occ. eigenvalues --  -11.46971 -11.44934 -11.44729 -11.39166 -11.38529
 Alpha  occ. eigenvalues --  -11.36479 -11.34206 -11.31831  -1.51060  -1.49991
 Alpha  occ. eigenvalues --   -1.48842  -1.33991  -1.33343  -1.23811  -1.15799
 Alpha  occ. eigenvalues --   -1.09426  -1.07003  -1.02599  -0.98121  -0.97148
 Alpha  occ. eigenvalues --   -0.93853  -0.89908  -0.88876  -0.84346  -0.82685
 Alpha  occ. eigenvalues --   -0.81197  -0.77232  -0.75776  -0.75015  -0.73200
 Alpha  occ. eigenvalues --   -0.72420  -0.70664  -0.69963  -0.68515  -0.67514
 Alpha  occ. eigenvalues --   -0.66043  -0.65561  -0.64116  -0.63850  -0.62940
 Alpha  occ. eigenvalues --   -0.61925  -0.59733  -0.52805  -0.51764  -0.49484
 Alpha  occ. eigenvalues --   -0.48445
 Alpha virt. eigenvalues --   -0.01411   0.06189   0.06369   0.07975   0.09325
 Alpha virt. eigenvalues --    0.11258   0.11629   0.13525   0.13913   0.15015
 Alpha virt. eigenvalues --    0.16768   0.17568   0.18869   0.19358   0.20702

 Mulliken atomic charges:
              1
     1  C    0.743084
     2  O   -0.637793
     3  C   -0.581336
     4  H    0.222801
     5  H    0.189759
     6  H    0.216201
     7  N   -0.796820
     8  C   -0.287301
     9  H    0.390969
    10  H    0.215131
    11  H    0.198035
    12  H    0.186857
    13  N   -0.817847
    14  C   -0.032275
    15  C    0.769036
    16  O   -0.612478
    17  C   -0.333719
    18  C   -0.344542
    19  N   -0.857301
    20  C   -0.210058
    21  H    0.431106
    22  H    0.221099
    23  H    0.209798
    24  H    0.187313
    25  H    0.215888
    26  H    0.465247
    27  H    0.211542
    28  H    0.467590
    29  H    0.250743
    30  H    0.254229
    31  H    0.465040
 Sum of Mulliken charges=   1.00000

 Dipole moment (field-independent basis, Debye):
    X=    13.9616    Y=    -7.8865    Z=    -0.6543  Tot=    16.0484
 Quadrupole moment (field-independent basis, Debye-Ang):
   XX=    -0.7582   YY=   -53.2912   ZZ=   -77.9073
   XY=   -26.5748   XZ=    12.6275   YZ=     7.4015

 Normal termination of Gaussian 03 at Mon Sep 22 09:41:40 2008.
